ID,Reduced Composition,Z,True Composition,Ionic conductivity (S cm-1),IC (Total),IC (Bulk),Space group,Space group #,a,b,c,alpha,beta,gamma,Family,DOI,Checked,Ref,Cif ID,Cif ref_1,Cif ref_2,note,close match,close match DOI,ICSD ID,Laskowski ID,Liion ID
3k7,Li0.33La0.56Ti0.98Al0.02O2.98F0.02,2,Li0.66La1.12Ti1.96Al0.04O5.96F0.04,0.00106,,,P4mm ,99,3.8697,3.8697,7.749,90.0,90.0,90.0,perovskites,10.1007/s11581-006-0011-9,1,D1 - 83,not available,,,,,,,,83.0
1sz,Li0.33La0.56Ti0.97Al0.03O2.97F0.03,2,Li0.66La1.12Ti1.94Al0.06O5.94F0.06,0.000928,,,P4mm ,99,3.8692,3.8692,7.7434,90.0,90.0,90.0,perovskites,10.1007/s11581-006-0011-9,1,D1 - 83,not available,,,,,,,,83.0
yh8,Li0.33La0.56Ti0.96Al0.04O2.96F0.04,2,Li0.66La1.12Ti1.92Al0.08O5.92F0.08,0.000622,,,P4mm ,99,3.8697,3.8697,7.744,90.0,90.0,90.0,perovskites,10.1007/s11581-006-0011-9,1,D1 - 83,not available,,,,,,,,63.0
coh,Li0.33La0.56Ti0.95Al0.05O2.95F0.05,2,Li0.66La1.12Ti1.9Al0.1O5.9F0.1,0.000176,,,P4mm ,99,3.8667,3.8667,7.739,90.0,90.0,90.0,perovskites,10.1007/s11581-006-0011-9,1,D1 - 83,not available,,,,,,,,83.0
1pw,Li0.33La0.56Ti0.94Al0.06O2.94F0.06,2,Li0.66La1.12Ti1.88Al0.12O5.88F0.12,0.000106,,,P4mm ,99,3.8722,3.8722,7.73,90.0,90.0,90.0,perovskites,10.1007/s11581-006-0011-9,1,D1 - 83,not available,,,,,,,,83.0
bw3,Li0.33La0.56Ti0.93Al0.07O2.93F0.07,2,Li0.66La1.12Ti1.86Al0.14O5.86F0.14,0.000645,,,P4mm ,99,3.8705,3.8705,7.7476,90.0,90.0,90.0,perovskites,10.1007/s11581-006-0011-9,1,D1 - 83,not available,,,,,,,,83.0
my5,Li0.33La0.56Ti0.92Al0.08O2.92F0.08,2,Li0.66La1.12Ti1.84Al0.16O5.84F0.16,0.000494,,,P4mm ,99,3.8695,3.8695,7.7437,90.0,90.0,90.0,perovskites,10.1007/s11581-006-0011-9,1,D1 - 83,not available,,,,,,,,83.0
hta,La0.565Li0.305TiO3,2,La1.13Li0.61Ti2.0O6.0,0.000957,,,P4/mmm,123,3.8727,3.8727,7.751,90.0,90.0,90.0,perovskites,10.1016/s0167-2738(00)00761-x,1,D2 - 59,done,92235-ICSD,,,,,92235.0,59.0,
s3h,La0.5Li0.5TiO3,2,La1.0Li1.0Ti2.0O6.0,0.000925,,,P4/mmm,123,3.8688,3.86885,7.7462,90.0,90.0,90.0,perovskites,10.1016/s0167-2738(00)00761-x,1,D2 - 59,done,92237-ICSD,,,,,92237.0,59.0,
nua,Li(LaTiO4),2,Li2.0La2.0Ti2.0O8.0,<1E-10,,,P4/nmm ,129,3.77,3.77,12.076,90.0,90.0,90.0,perovskites,10.4028/www.scientific.net/msf.321-324.965,1,D2 - 99,done,91843-ICSD,,,,,91843.0,99.0,
3rx,Li(NdTiO4),2,Li2.0Nd2.0Ti2.0O8.0,<1E-10,,,P4/nmm ,129,3.7465,3.7465,11.895,90.0,90.0,90.0,perovskites,10.4028/www.scientific.net/msf.321-324.965,1,D2 - 99,done,91844-ICSD,,,,,91844.0,99.0,
7e5,La0.65Li0.05(Mg0.5W0.5)O3,4,La2.6Li0.2Mg2.0W2.0O12.0,1.8e-07,,,P4/nmm ,129,5.533,5.533,7.903,90.0,90.0,90.0,perovskites,10.1016/j.ssi.2004.05.010,1,D2 - 100,done,151900-ICSD,,partial occupancy corrected,,,151900.0,100.0,
sib,La0.63Li0.11(Mg0.5W0.5)O3,4,La2.52Li0.44Mg2.0W2.0O12.0,6.8e-06,,,P4/nmm ,129,5.534,5.534,7.903,90.0,90.0,90.0,perovskites,10.1016/j.ssi.2004.05.010,1,D2 - 100,done,151901-ICSD,,partial occupancy corrected,,,151901.0,100.0,
r99,La0.62 Li0.14(Mg0.5W0.5)O3,4,La2.48Li0.56Mg2.0W2.0O12.0,1.2e-05,,,P4/nmm ,129,5.533,5.533,7.903,90.0,90.0,90.0,perovskites,10.1016/j.ssi.2004.05.010,1,D2 - 100,done,151902-ICSD,,partial occupancy corrected,,,151902.0,100.0,
lol,Li4PS4I,2,Li8.0P2.0S8.0I2.0,0.00012,,,P4/nmm ,129,8.48284,8.48284,5.93013,90.0,90.0,90.0,thio-LISICON,10.1021/acs.chemmater.7b00013,1,D2 - 101,done,,,appendix: diffraction data available,,,432169.0,101.0,
d7f,Li3BiO4,4,Li12.0Bi4.0O16.0,4.1e-10,,,P42/mnm,136,8.75298,8.75298,4.22469,90.0,90.0,90.0,oxides,10.1016/j.ssi.2015.10.016,1,D2 - 30,done,,,,Yes,ICSD-109087,109087.0,30.0,
52b,Li10.05Ge1.05P1.95S12,2,Li20.1Ge2.1P3.9S24.0,0.0122,,,P42/nmc ,137,8.6944,8.6944,12.60025,90.0,90.0,90.0,LGPS,10.1039/c4ta05231e,1,D2 - 104,not available,,,,,,,104.0,
8po,Li10.2Ge1.2P1.8S12,2,Li20.4Ge2.4P3.6S24.0,0.0132,,,P42/nmc ,137,8.7043,8.7043,12.616,90.0,90.0,90.0,LGPS,10.1039/c4ta05231e,1,D2 - 104,not available,,,,,,,104.0,
ya8,Li10.5Ge1.5P1.5S12,2,Li21.0Ge3.0P3.0S24.0,0.011,,,P42/nmc ,137,8.7025,8.7025,12.6251,90.0,90.0,90.0,LGPS,10.1039/c4ta05231e,1,D2 - 104,not available,,,,,,,104.0,
j8q,Li10GeP2S12,2,Li20.0Ge2.0P4.0S24.0,0.0121,,,P42/nmc ,137,8.719,8.719,12.639,90.0,90.0,90.0,LGPS,10.1039/c4ta05231e|10.1021/acs.chemmater.7b00886,1,D2 - 104,done,,,,Yes,10.1039/c3cp51985f,188887.0,111.0,
824,Li10.35Ge1.35P1.65S12,2,Li20.7Ge2.7P3.3S24.0,0.0144,,,P42/nmc ,137,8.713023,8.713023,12.639695,90.0,90.0,90.0,LGPS,10.1039/c4ta05231e,1,D2 - 104,done,193947-ICSD,,,,,193947.0,104.0,
mqo,Li3.45Si0.45P0.55S4,6,Li20.7Si2.7P3.3S24.0,0.00673,,,P42/nmc ,137,8.669578,8.669578,12.536058,90.0,90.0,90.0,LGPS,10.1039/c4fd00143e,1,D2 - 105,not available,,,refer D2 - 109; 252037-ICSD,,,,105.0,
izs,Li3.475Si0.475P0.525S4,6,Li20.85Si2.85P3.15S24.0,0.00527,,,P42/nmc ,137,8.672,8.672,12.536,90.0,90.0,90.0,LGPS,10.1039/c4fd00143e,1,D2 - 105,not available,,,,,,,105.0,
8nc,Li3.425Si0.425P0.575S4,6,Li20.55Si2.55P3.45S24.0,0.00565,,,P42/nmc ,137,8.653,8.653,12.51,90.0,90.0,90.0,LGPS,10.1039/c4fd00143e,1,D2 - 105,not available,,,,,,,105.0,
3sx,Li3.4Si0.4P0.6S4,6,Li20.4Si2.4P3.6S24.0,0.00421,,,P42/nmc ,137,8.644,8.644,12.504,90.0,90.0,90.0,LGPS,10.1039/c4fd00143e,1,D2 - 105,not available,,,,,,,105.0,
xga,Li3.335Sn0.33P0.67S4,6,Li20.01Sn1.98P4.02S24.0,0.00373,,,P42/nmc ,137,8.743,8.743,12.782,90.0,90.0,90.0,LGPS,10.1039/c4fd00143e,1,D2 - 105,not available,,,,,,,105.0,
xn9,Li3.3Sn0.3P0.7S4,6,Li19.8Sn1.8P4.2S24.0,0.00365,,,P42/nmc ,137,8.731,8.731,12.768,90.0,90.0,90.0,LGPS,10.1039/c4fd00143e,1,D2 - 105,not available,,,,,,,105.0,
sg4,Li3.285Sn0.28P0.72S4,6,Li19.71Sn1.68P4.32S24.0,0.00436,,,P42/nmc ,137,8.721,8.721,12.725,90.0,90.0,90.0,LGPS,10.1039/c4fd00143e,1,D2 - 105,not available,,,,,,,105.0,
ns3,Li3.27Sn0.27P0.73S4,6,Li19.62Sn1.62P4.38S24.0,0.00496,,,P42/nmc ,137,8.7405,8.7405,12.715,90.0,90.0,90.0,LGPS,10.1039/c4fd00143e,1,D2 - 105,not available,,,,,,,105.0,
g8j,Li3.26Sn0.26P0.74S4,6,Li19.56Sn1.56P4.44S24.0,0.00453,,,P42/nmc ,137,8.737,8.737,12.713,90.0,90.0,90.0,LGPS,10.1039/c4fd00143e,1,D2 - 105,not available,,,,,,,105.0,
bim,Li3.25Sn0.25P0.75S4,6,Li19.5Sn1.5P4.5S24.0,0.0036,,,P42/nmc ,137,8.722,8.722,12.72,90.0,90.0,90.0,LGPS,10.1039/c4fd00143e,1,D2 - 105,not available,,,,,,,105.0,
02p,Li10SiP2S12,2,Li20.0Si2.0P4.0S24.0,0.0023,,,P42/nmc ,137,8.6512,8.6512,12.5095,90.0,90.0,90.0,LGPS,10.1149/2.0501412jes,1,D2 - 106,not available,,,,,,,106.0,686.0
9lx,Li10SnP2S12,2,Li20.0Sn2.0P4.0S24.0,0.007,,,P42/nmc ,137,8.7057,8.7057,12.7389,90.0,90.0,90.0,LGPS,10.1021/ja407393y,1,D2 - 107,done,193755-ICSD; appendix,,,,,193755.0,107.0,
mtn,Li10GeP2S12,2,Li20.0Ge2.0P4.0S24.0,0.0246,,,P42/nmc ,137,8.71121,8.71121,12.6078,90.0,90.0,90.0,LGPS,10.1021/acs.chemmater.8b00266,1,D2 - 108,done,appendix,,,,,,108.0,
9rc,Li10(Ge0.776Sn0.224)P2S12,2,Li20.0Ge1.55Sn0.45P4.0S24.0,0.0141,,,P42/nmc ,137,8.71859,8.71859,12.6514,90.0,90.0,90.0,LGPS,10.1021/acs.chemmater.8b00266,1,D2 - 108,done,appendix,,,,,,108.0,
13q,Li10SnP2S12,2,Li20.0Sn2.0P4.0S24.0,0.00398,,,P42/nmc ,137,8.73685,8.73685,12.7573,90.0,90.0,90.0,LGPS,10.1021/acs.chemmater.8b00266,1,D2 - 108,done,appendix,,lattice parameters not matching cif,,,,108.0,
ik8,Li10(Ge0.416Sn0.584)P2S12,2,Li20.0Ge0.83Sn1.17P4.0S24.0,0.00743,,,P42/nmc ,137,8.72902,8.72902,12.7065,90.0,90.0,90.0,LGPS,10.1021/acs.chemmater.8b00266,1,D2 - 108,done,appendix,,,,,,108.0,
nip,Li9.81Sn0.81P2.19S12,2,Li19.62Sn1.62P4.38S24.0,0.0055,,,P42/nmc ,137,8.73764,8.73764,12.7166,90.0,90.0,90.0,LGPS,10.1107/s2052520615022283,1,D2 - 109,done,252040-ICSD,,partial occupancy corrected,,,252040.0,109.0,609.0
1hh,Li10GeP2S12,2,Li20.0Ge2.0P4.0S24.0,0.012,,,P42/nmc ,137,8.69407,8.69407,12.5994,90.0,90.0,90.0,LGPS,10.1038/nmat3066,1,D2 - 110,not available,,,appendix: diffraction data available,,,,110.0,560.0
8ub,Li10.5(Sn0.2Si0.8)1.5P1.5S12,2,Li21.0Sn0.6Si2.4P3.0S24.0,0.00879,,,P42/nmc ,137,8.69204,8.69204,12.6166,90.0,90.0,90.0,LGPS,10.1021/acs.chemmater.7b00886,1,D2 - 111,done,257947-ICSD,,appendix: diffraction data available,,,257947.0,111.0,
7tu,Li10.2(Sn0.2Si0.8)1.2P1.8S12,2,Li20.4Sn0.48Si1.92P3.6S24.0,0.00782,,,P42/nmc ,137,8.65173,8.65173,12.5349,90.0,90.0,90.0,LGPS,10.1021/acs.chemmater.7b00886,1,D2 - 111,done,,,appendix: diffraction data available,,,257948.0,111.0,
ui6,Li10.35(Sn0.27Si1.08)P1.65S12,2,Li20.7Sn0.54Si2.16P3.3S24.0,0.011,,,P42/nmc ,137,8.67822,8.67822,12.5744,90.0,90.0,90.0,LGPS,10.1021/acs.chemmater.7b00886,1,D2 - 111,done,,,duplicated with line 204; deleted,,,257946.0,111.0,
nkr,Li10GeP2S12,2,Li20.0Ge2.0P4.0S24.0,0.00143,,,P42/nmc ,137,8.694,8.694,12.599,90.0,90.0,90.0,LGPS,10.1016/j.ssi.2017.01.014,1,D2 - 112,not available,,,,,,,112.0,
906,Li9.8Ba0.1GeP2S12,2,Li19.6Ba0.2Ge2.0P4.0S24.0,0.000561,,,P42/nmc ,137,8.716,8.716,12.728,90.0,90.0,90.0,LGPS,10.1016/j.ssi.2017.01.014,1,D2 - 112,not available,,,,,,,112.0,
fnu,Li9.6Ba0.2GeP2S12,2,Li19.2Ba0.4Ge2.0P4.0S24.0,0.000572,,,P42/nmc ,137,8.727,8.727,12.908,90.0,90.0,90.0,LGPS,10.1016/j.ssi.2017.01.014,1,D2 - 112,not available,,,,,,,112.0,
pfi,Li9.4Ba0.3GeP2S12,2,Li18.8Ba0.6Ge2.0P4.0S24.0,0.000707,,,P42/nmc ,137,8.734,8.734,13.005,90.0,90.0,90.0,LGPS,10.1016/j.ssi.2017.01.014,1,D2 - 112,not available,,,,,,,112.0,
f0h,Li9.2Ba0.4GeP2S12,2,Li18.4Ba0.8Ge2.0P4.0S24.0,0.000316,,,P42/nmc ,137,8.752,8.752,13.011,90.0,90.0,90.0,LGPS,10.1016/j.ssi.2017.01.014,1,D2 - 112,not available,,,,,,,112.0,
7iw,Li9Ba0.5GeP2S12,2,Li18.0Ba1.0Ge2.0P4.0S24.0,9.98e-05,,,P42/nmc ,137,8.77,8.77,13.053,90.0,90.0,90.0,LGPS,10.1016/j.ssi.2017.01.014,1,D2 - 112,not available,,,,,,,112.0,
ikh,Li9.6P3S12,2,Li19.2P6.0S24.0,0.0012,,,P42/nmc ,137,8.7144,8.7144,12.4677,90.0,90.0,90.0,LGPS,10.1038/nenergy.2016.30,1,D1 - 25,not available,,,appendix: diffraction data available,,,,102.0,25.0
hd3,Li7GePS8,2,Li14.0Ge2.0P2.0S16.0,0.007,,,P42/nmc ,137,8.718,8.718,12.66,90.0,90.0,90.0,LGPS,10.1039/c3ee41728j,1,D2 - 251,not available,,,,,,,251.0,
ete,Li9.54Si1.74P1.44S11.7Cl0.3,2,Li19.08Si3.48P2.88S23.4Cl0.6,0.025,,,P42/nmc ,137,8.709652,8.709652,12.56907,90.0,90.0,90.0,LGPS,10.1038/nenergy.2016.30,1,D1 - 25,not available,,,appendix: diffraction data available,,,,,26.0
k4x,Li10.35Si1.35P1.65S12,2,Li20.7Si2.7P3.3S24.0,0.0065,,,P42/nmc ,137,8.68385,8.68385,12.55589,90.0,90.0,90.0,LGPS,10.1107/s2052520615022283,1,D2 - 109,done,252037-ICSD,,,,,252037.0,109.0,608.0
ia5,LiLaNb2O7,2,Li2.0La2.0Nb4.0O14.0,<1E-8,,,I4/mmm,139,3.8798,3.8798,20.3597,90.0,90.0,90.0,perovskites,10.1016/0925-8388(93)90192-p,1,D2 - 114,done,72566-ICSD,,,,,72566.0,114.0,
sg0,LiScO2,4,Li4.0Sc4.0O8.0,<1E-10,,, I41/amd,141,4.1791,4.1791,9.361,90.0,90.0,90.0,oxides,10.2320/matertrans.y-m2016816,1,D2 - 117;D2 - 33,done,257819-ICSD,,ICSD request,,,257819.0,117.0,
97b,Li0.9Sc0.9Zr0.1O2,4,Li3.6Sc3.6Zr0.4O8.0,<1E-10,,, I41/amd,141,4.1804,4.1804,9.4186,90.0,90.0,90.0,oxides,10.2320/matertrans.y-m2016816,1,D2 - 117,done,257820-ICSD,,ICSD request,,,257820.0,117.0,
wyu,Li7La3Zr2O12,8,Li56.0La24.0Zr16.0O96.0,1.63e-06,,,I41/acd ,142,13.134,13.134,12.663,90.0,90.0,90.0,garnet,10.1016/j.jssc.2009.05.020,1,D1 - 24; D2 - 119,done,246816-ICSD,,,,,,119.0,17.0
019,LiTi2(PO4)3,6,Li6.0Ti12.0P18.0O72.0,0.000161,,, R-3c,168,8.5112,8.5112,20.8479,90.0,90.0,120.0,NASICON,10.1021/ic400577v,1,D2 - 124,done,118128-ICSD ,,,,,118128.0,124.0,
yqu,Li1.2Ti1.8Al0.2(PO4)3,6,Li7.2Ti10.8Al1.2P18.0O72.0,0.00482,,, R-3,148,8.502,8.502,20.818,90.0,90.0,120.0,NASICON,10.1021/ic400577v,1,D2 - 124,done,118133-ICSD ,,"true formula for lattice params is  Li1.17(Ti1.83Al0.17)(PO4)3, IC at Li1.2",,,118133.0,124.0,
95j,Li3AlH6,6,Li18.0Al6.0H36.0,1.4e-07,,, R-3,148,8.07117,8.07117,9.513,90.0,90.0,120.0,hydrides,10.1063/1.3356981,1,D1 - 727,done,96266-ICSD,,,,,96266.0,,727.0
0iv,Li4P2S6,1,Li4.0P2.0S6.0,2.38e-07,,,P-31m,162,6.075,6.075,6.595,90.0,90.0,120.0,thio-phosphate,10.1016/j.ssi.2015.10.015,1,D2 - 127,done,appendix of D2-128; 242170-ICSD,,,Yes,10.1021/acs.chemmater.6b04175,242170.0,127.0,
2ro,Li4P2S6,1,Li4.0P2.0S6.0,1.6e-10,,,P-31m,162,6.0773,6.0773,6.5985,90.0,90.0,120.0,thio-phosphate,10.1021/acs.chemmater.6b04175,1,D2 - 128,not available,,,could be deleted; glass ceramic,,,,128.0,652.0
deu,Li4.4Al0.4Ge0.6S4,2,Li8.8Al0.8Ge1.2S8.0,4.3e-05,,,P-3m1,164,7.9496,7.9496,6.1566,90.0,90.0,120.0,sulfides,10.1021/acs.chemmater.8b03175,1,D2 - 130,done,appendix,,,,,,130.0,
usu,Li4.4Al0.4Sn0.6S4,2,Li8.8Al0.8Sn1.2S8.0,4.3e-06,,,P-3m1,164,8.0184,8.0184,6.2856,90.0,90.0,120.0,sulfides,10.1021/acs.chemmater.8b03175,1,D2 - 130,done,appendix,,,,,,130.0,
ur9,LiZr2(PO4)3,6,Li6.0Zr12.0P18.0O72.0,1e-09,,,R-3c,167,8.847,8.847,22.24,90.0,90.0,120.0,NASICON,10.1016/0025-5408(86)90194-7,1,D2 -2,done,,,,,,201935.0,137.0,
0o6,Li1.2Ti1.8Sc0.2(PO4)3,6,Li7.2Ti10.8Sc1.2P18.0O72.0,9.98e-05,9.98e-05,0.00251,R-3c,167,8.527,8.527,20.924,90.0,90.0,120.0,,10.1021/acs.inorgchem.6b02274,1,D2 - 132,done,,,,,,119210.0,132.0,
a3l,LiHf2(PO4)3,6,Li6.0Hf12.0P18.0O72.0,2.83e-07,,,R-3c,167,8.824,8.824,22.04,90.0,90.0,120.0,NASICON,10.1002/chin.199345017,1,D2 -2,not available,,,,,,,2.0,
4ba,LiGe2(PO4)3,6,Li6.0Ge12.0P18.0O72.0,3.33e-07,,,R-3c,167,8.287,8.287,20.475,90.0,90.0,120.0,NASICON,10.1002/chin.199345017,1,D2 -2,done,,,Precision of IC is not good non linear extrapolation,Yes,10.1016/0022-4596(91)90134-4,69763.0,2.0,
qea,LiTi2(PO4)3,6,Li6.0Ti12.0P18.0O72.0,2e-06,,,R-3c,167,8.512,8.512,20.858,90.0,90.0,120.0,NASICON,10.1149/1.2086597,1,D2 - 134,not available,,,,,,,134.0,
ldx,LiGe2(PO4)3,6,Li6.0Ge12.0P18.0O72.0,4.83e-09,,,R-3c,167,8.27059,8.27059,20.4652,90.0,90.0,120.0,NASICON,10.1021/acsami.8b00842,1,D2 - 133,done,263767-ICSD,downloaded,,,,263767.0,133.0,
0fh,Li1.2Al0.2Ge1.8(PO4)3,6,Li7.2Al1.2Ge10.8P18.0O72.0,4.83e-05,,,R-3c,167,8.2619,8.2619,20.5656,90.0,90.0,120.0,NASICON,10.1021/acsami.8b00842,1,D2 - 133,done,263760-ICSD,downloaded,,,,263760.0,133.0,
gw2,Li1.4Al0.4Ge1.6(PO4)3,6,Li8.4Al2.4Ge9.6P18.0O72.0,0.000188,,,R-3c,167,8.25565,8.25565,20.6319,90.0,90.0,120.0,NASICON,10.1021/acsami.8b00842,1,D2 - 133,done,263762-ICSD,downloaded,,,,263762.0,133.0,
1xf,Li1.5Al0.5Ge1.5(PO4)3,6,Li9.0Al3.0Ge9.0P18.0O72.0,0.000336,,,R-3c,167,8.25658,8.25658,20.6523,90.0,90.0,120.0,NASICON,10.1021/acsami.8b00842,1,D2 - 133,done,263763-ICSD,downloaded,,,,263763.0,133.0,
tjh,Li1.7Al0.7Ge1.3(PO4)3,6,Li10.2Al4.2Ge7.8P18.0O72.0,0.000264,,,R-3c,167,8.25247,8.25247,20.6936,90.0,90.0,120.0,NASICON,10.1021/acsami.8b00842,1,D2 - 133,done,263765-ICSD,downloaded,,,,263765.0,133.0,
8fn,Li1.8Al0.8Ge1.2(PO4)3,6,Li10.8Al4.8Ge7.2P18.0O72.0,0.000137,,,R-3c,167,8.25004,8.25004,20.7062,90.0,90.0,120.0,NASICON,10.1021/acsami.8b00842,1,D2 - 133,done,263766-ICSD,downloaded,,,,263766.0,133.0,
mdj,Li1.2Ti2Si0.2P2.8O12,6,Li7.2Ti12.0Si1.2P16.8O72.0,8.6e-05,,,R-3c,167,8.518,8.518,20.848,90.0,90.0,120.0,NASICON,10.1149/1.2086597,1,D2 - 134,not available,,,,,,,134.0,
t1l,Li1.3Ti2Si0.3P2.7O12,6,Li7.8Ti12.0Si1.8P16.2O72.0,0.00032,,,R-3c,167,8.52,8.52,20.862,90.0,90.0,120.0,NASICON,10.1149/1.2086597,1,D2 - 134,not available,,,,,,,134.0,
my9,Li1.2Al0.2Ti1.8(PO4)3,6,Li7.2Al1.2Ti10.8P18.0O72.0,0.000595,,,R-3c,167,8.5042,8.5042,20.8252,90.0,90.0,120.0,NASICON,10.1149/1.2086597,1,D2 - 134,done,,,,Yes,10.1016/j.solidstatesciences.2016.08.011,7932.0,134.0,
9s4,Li1.3Al0.3Ti1.7(PO4)3,6,Li7.8Al1.8Ti10.2P18.0O72.0,0.000722,,,R-3c,167,8.5004,8.5004,20.8156,90.0,90.0,120.0,NASICON,10.1149/1.2086597,1,D2 - 134,done,,,,Yes,10.1021/acs.chemmater.9b04419,141518.0,134.0,
iqt,Li1.4Al0.4Ti1.6(PO4)3,6,Li8.4Al2.4Ti9.6P18.0O72.0,0.000388,,,R-3c,167,8.4955,8.4955,20.7992,90.0,90.0,120.0,NASICON,10.1149/1.2086597,1,D2 - 134,done,,,,Yes,10.1016/j.ssi.2019.115192,19904.0,134.0,
xa0,Li1.5Al0.5Ti1.5(PO4)3,6,Li9.0Al3.0Ti9.0P18.0O72.0,0.000248,,,R-3c,167,8.4935,8.4935,20.7994,90.0,90.0,120.0,NASICON,10.1149/1.2086597,1,D2 - 134,done,,,,Yes,10.1016/j.ssi.2019.115192,19905.0,134.0,
f4x,Li1.2Cr0.2Ti1.8(PO4)3,6,Li7.2Cr1.2Ti10.8P18.0O72.0,1.82e-05,,,R-3c,167,8.5189,8.5189,20.8643,90.0,90.0,120.0,NASICON,10.1149/1.2086597,1,D2 - 134,not available,,,,,,,134.0,
txm,Li1.3Cr0.3Ti1.7(PO4)3,6,Li7.8Cr1.8Ti10.2P18.0O72.0,3.51e-05,,,R-3c,167,8.5203,8.5203,20.8702,90.0,90.0,120.0,NASICON,10.1149/1.2086597,1,D2 - 134,not available,,,,,,,134.0,
v1t,Li1.4Cr0.4Ti1.6(PO4)3,6,Li8.4Cr2.4Ti9.6P18.0O72.0,0.000149,,,R-3c,167,8.522,8.522,20.88,90.0,90.0,120.0,NASICON,10.1149/1.2086597,1,D2 - 134,not available,,,,,,,134.0,
d6b,Li1.5Cr0.5Ti1.5(PO4)3,6,Li9.0Cr3.0Ti9.0P18.0O72.0,0.000386,,,R-3c,167,8.5218,8.5218,20.8829,90.0,90.0,120.0,NASICON,10.1149/1.2086597,1,D2 - 134,not available,,,,,,,134.0,
x9a,Li1.2Ga0.2Ti1.8(PO4)3,6,Li7.2Ga1.2Ti10.8P18.0O72.0,0.000162,,,R-3c,167,8.5156,8.5156,20.8451,90.0,90.0,120.0,NASICON,10.1149/1.2086597,1,D2 - 134,not available,,,,,,,134.0,
3ta,Li1.3Ga0.3Ti1.7(PO4)3,6,Li7.8Ga1.8Ti10.2P18.0O72.0,0.000261,,,R-3c,167,8.5175,8.5175,20.8541,90.0,90.0,120.0,NASICON,10.1149/1.2086597,1,D2 - 134,not available,,,,,,,134.0,
gjy,Li1.4Ga0.4Ti1.6(PO4)3,6,Li8.4Ga2.4Ti9.6P18.0O72.0,0.000128,,,R-3c,167,8.5136,8.5136,20.8588,90.0,90.0,120.0,NASICON,10.1149/1.2086597,1,D2 - 134,not available,,,,,,,134.0,
lz8,Li1.5Ga0.5Ti1.5(PO4)3,6,Li9.0Ga3.0Ti9.0P18.0O72.0,0.000122,,,R-3c,167,8.5159,8.5159,20.8419,90.0,90.0,120.0,NASICON,10.1149/1.2086597,1,D2 - 134,not available,,,,,,,134.0,
6st,Li1.2Fe0.2Ti1.8(PO4)3,6,Li7.2Fe1.2Ti10.8P18.0O72.0,0.00018,,,R-3c,167,8.5213,8.5213,20.8648,90.0,90.0,120.0,NASICON,10.1149/1.2086597,1,D2 - 134,not available,,,,,,,134.0,
t9r,Li1.3Fe0.3Ti1.7(PO4)3,6,Li7.8Fe1.8Ti10.2P18.0O72.0,0.000246,,,R-3c,167,8.5262,8.5262,20.865,90.0,90.0,120.0,NASICON,10.1149/1.2086597,1,D2 - 134,not available,,,,,,,134.0,
xr7,Li1.4Fe0.4Ti1.6(PO4)3,6,Li8.4Fe2.4Ti9.6P18.0O72.0,0.000392,,,R-3c,167,8.5301,8.5301,20.8889,90.0,90.0,120.0,NASICON,10.1149/1.2086597,1,D2 - 134,not available,,,,,,,134.0,
pg8,Li1.5Fe0.5Ti1.5(PO4)3,6,Li9.0Fe3.0Ti9.0P18.0O72.0,0.000174,,,R-3c,167,8.5367,8.5367,20.8932,90.0,90.0,120.0,NASICON,10.1149/1.2086597,1,D2 - 134,done,,,,Yes,10.1039/b312865b,55751.0,134.0,
1wm,Li1.2Sc0.2Ti1.8(PO4)3,6,Li7.2Sc1.2Ti10.8P18.0O72.0,0.00069,,,R-3c,167,8.5482,8.5482,20.9418,90.0,90.0,120.0,NASICON,10.1149/1.2086597,1,D2 - 134,not available,,,,,,,134.0,
do2,Li1.3Sc0.3Ti1.7(PO4)3,6,Li7.8Sc1.8Ti10.2P18.0O72.0,0.000703,,,R-3c,167,8.5645,8.5645,20.985,90.0,90.0,120.0,NASICON,10.1149/1.2086597,1,D2 - 134,not available,,,,,,,134.0,
uaj,Li1.4Sc0.4Ti1.6(PO4)3,6,Li8.4Sc2.4Ti9.6P18.0O72.0,0.000515,,,R-3c,167,8.5651,8.5651,20.9948,90.0,90.0,120.0,NASICON,10.1149/1.2086597,1,D2 - 134,not available,,,,,,,134.0,375.0
5u3,Li1.2In0.2Ti1.8(PO4)3,6,Li7.2In1.2Ti10.8P18.0O72.0,0.00039,,,R-3c,167,8.544,8.544,20.948,90.0,90.0,120.0,NASICON,10.1149/1.2086597,1,D2 - 134,not available,,,,,,,134.0,
2eq,Li1.3In0.3Ti1.7(PO4)3,6,Li7.8In1.8Ti10.2P18.0O72.0,0.000393,,,R-3c,167,8.5495,8.5495,20.9586,90.0,90.0,120.0,NASICON,10.1149/1.2086597,1,D2 - 134,not available,,,,,,,134.0,
yn6,Li1.4In0.4Ti1.6(PO4)3,6,Li8.4In2.4Ti9.6P18.0O72.0,0.000302,,,R-3c,167,8.5626,8.5626,21.0066,90.0,90.0,120.0,NASICON,10.1149/1.2086597,1,D2 - 134,not available,,,,,,,134.0,
8jy,Li1.5In0.5Ti1.5(PO4)3,6,Li9.0In3.0Ti9.0P18.0O72.0,0.000204,,,R-3c,167,8.5695,8.5695,21.0089,90.0,90.0,120.0,NASICON,10.1149/1.2086597,1,D2 - 134,not available,,,,,,,134.0,379.0
p4l,Li1.2La0.2Ti1.8(PO4)3,6,Li7.2La1.2Ti10.8P18.0O72.0,8e-05,,,R-3c,167,8.5117,8.5117,20.8537,90.0,90.0,120.0,NASICON,10.1149/1.2086597,1,D2 - 134,not available,,,,,,,134.0,
qkr,Li1.3La0.3Ti1.7(PO4)3,6,Li7.8La1.8Ti10.2P18.0O72.0,0.000523,,,R-3c,167,8.5119,8.5119,20.8513,90.0,90.0,120.0,NASICON,10.1149/1.2086597,1,D2 - 134,not available,,,,,,,134.0,
e0z,Li1.4La0.4Ti1.6(PO4)3,6,Li8.4La2.4Ti9.6P18.0O72.0,0.000498,,,R-3c,167,8.5108,8.5108,20.8492,90.0,90.0,120.0,NASICON,10.1149/1.2086597,1,D2 - 134,not available,,,,,,,134.0,
vus,Li1.5La0.5Ti1.5(PO4)3,6,Li9.0La3.0Ti9.0P18.0O72.0,0.000281,,,R-3c,167,8.5218,8.5218,20.8621,90.0,90.0,120.0,NASICON,10.1149/1.2086597,1,D2 - 134,not available,,,,,,,134.0,
h7r,Li(Ti1.4Sn0.6)(PO4)3,6,Li6.0Ti8.4Sn3.6P18.0O72.0,2.28e-05,,,R-3c,167,8.5491,8.5491,21.0473,90.0,90.0,120.0,NASICON,10.1016/j.physb.2011.11.006,1,D2 - 135,done,183672-ICSD,,partial occupancy corrected,,,183672.0,135.0,