ID,Reduced Composition,Z,True Composition,Ionic conductivity (S cm-1),IC (Total),IC (Bulk),Space group,Space group #,a,b,c,alpha,beta,gamma,Family,DOI,Checked,Ref,Cif ID,Cif ref_1,Cif ref_2,note,close match,close match DOI,ICSD ID,Laskowski ID,Liion ID
jqc,Li7BiO6,1,Li7.0Bi1.0O6.0,1.58489e-06,,,P -1,2,5.5071,6.0425,5.5231,116.912,120.867,62.234,hexaoxometalates,10.1002/zaac.200500231,1,D2 - 3,done,155950-ICSD,,partial occupancy not correct,,,155950.0,3.0,
oi6,Li7SbO6,1,Li7.0Sb1.0O6.0,6.7e-08,,,P -1,2,5.4307,5.8916,5.385,116.748,119.63,62.779,hexaoxometalates,10.1021/ic030208w,1,D2 - 3,done,413370-ICSD,,partial occupancy not correct,,,413370.0,3.0,
2t8,LiV(PO4)F,2,Li2.0V2.0P2.0O8.0F2.0,8.1e-07,,,P -1,2,5.3115,7.2617,5.1744,107.934,98.444,107.547,Tavorite,10.1016/j.ssi.2013.04.002,1,D2 - 6,done,,,appendix: diffraction data available,,,,6.0,
47i,Li4P2O7,2,Li8.0P4.0O14.0,<1E-10,,,P -1,2,8.5632,7.1099,5.1858,111.426,89.991,103.055,diphosphate,10.1016/j.jssc.2013.12.015,1,D2 - 8,done,248414-ICSD,,,,,248414.0,8.0,
clt,Li6CuB4O10,1,Li6.0Cu1.0B4.0O10.0,1e-13,,,P -1,2,3.31218,6.68272,9.27858,78.8443,89.7596,86.6143,copper pyroborate,10.1021/acs.inorgchem.8b01785,1,D2 - 10,done,4819-ICSD,,,,,4819.0,10.0,
ix1,Li0.91Hf2.022(PO4)3,6,Li5.46Hf12.13P18.0O72.0,3.2e-07,,,R-3c,167,8.8306,8.8306,22.027,90.0,90.0,120.0,NASICON,10.1021/cm970078n,0,D2 - 11,done,83501-ICSD,,true formula: Hf2.032 Li0.87 O12 P3;  partial occupancy corrected,,,83501.0,11.0,
bq9,Li3BiO3,8,Li24.0Bi8.0O24.0,2.4e-10,,,P -1,2,9.02743,9.7388,9.23917,114.04632,89.29499,107.53782,oxides,10.1016/j.ssi.2015.10.016,1,D2 - 30,done,40245-ICSD,,D - Rhi - 1_si_1_ Li3BiO3,Yes,10.1002/zaac.19895760119,40245.0,30.0,
skm,Li5BiO5,2,Li10.0Bi2.0O10.0,3.9e-09,,,Cm,8,9.97608,4.15207,5.94635,90.0,109.48577,90.0,oxides,10.1016/j.ssi.2015.10.016,1,D2 - 30,done,203031-ICSD ,,D - Rhi - 1_si_2_ Li5BiO5,,,203031.0,30.0,
pwr,Li7.22Si1.5P0.5O8,1,Li7.22Si1.5P0.5O8.0,1.64e-07,,,P21/m,11,5.10536,6.11225,5.29671,90.0,90.3692,90.0,LISICON,10.1021/jacs.5b04444,1,D2 - 16; D1 - 568,done,238602-ICSD ,,partial occupancy corrected,,,238602.0,16.0,
b4c,Li4SiS4,2,Li8.0Si2.0S8.0,1.59e-08,,,P21/m,11,6.8934,7.7675,6.1241,90.0,91.225,90.0,thio-LISICON,10.1006/jssc.2002.9701,1,D2 - 18,done,59708-ICSD,,,,,59708.0,18.0,
7se,Li3.8Si0.8P0.2S4,24,Li91.2Si19.2P4.8S96.0,8.11e-07,,,P21/m,11,13.7707,23.304,12.1962,90.0,91.168,90.0,thio-LISICON,10.1006/jssc.2002.9701,1,D2 - 18,not available,,,,,,,18.0,
5e2,Li3.6Si0.6P0.4S4,24,Li86.4Si14.4P9.6S96.0,7.19e-05,,,P21/m,11,13.6233,23.4044,12.2258,90.0,90.133,90.0,thio-LISICON,10.1006/jssc.2002.9701,1,D2 - 18,not available,,,,,,,18.0,
dj2,Li3.4Si0.4P0.6S4,24,Li81.6Si9.6P14.4S96.0,0.000662,,,P21/m,11,13.3678,23.6448,12.2154,90.0,90.134,90.0,thio-LISICON,10.1006/jssc.2002.9701,1,D2 - 18,not available,,,,,,,18.0,
10u,Li3.2Si0.2P0.8S4,24,Li76.8Si4.8P19.2S96.0,3.2e-06,,,P21/m,11,13.0804,24.1028,12.2338,90.0,90.03,90.0,thio-LISICON,10.1006/jssc.2002.9701,1,D2 - 18,not available,,,,,,,18.0,
y2l,Li5AlS4,2,Li10.0Al2.0S8.0,1.4e-09,,,P21/m,11,6.8583,7.8369,6.2488,90.0,90.333,90.0,thio-LISICON,10.1016/j.jssc.2017.09.018,1,D1 - 901,done,433369-ICSD,,,,,433369.0,,901.0
gl0,Li4.2Si0.8Al0.2S4,2,Li8.4Si1.6Al0.4S8.0,2.4e-08,,,P21/m,11,6.903,7.787,6.125,90.0,90.877,90.0,thio-LISICON,10.1006/jssc.2002.9701,1,D2 - 18,not available,,,,,,,18.0,
wmr,Li4.4Si0.6Al0.4S4,2,Li8.8Si1.2Al0.8S8.0,3.05e-08,,,P21/m,11,6.862,7.81,6.113,90.0,90.23,90.0,thio-LISICON,10.1006/jssc.2002.9701,1,D2 - 18,not available,,,,,,,18.0,
xxq,Li4.6Si0.4Al0.6S4,2,Li9.2Si0.8Al1.2S8.0,1.46e-08,,,P21/m,11,6.858,7.82,6.217,90.0,89.947,90.0,thio-LISICON,10.1006/jssc.2002.9701,1,D2 - 18,not available,,,,,,,18.0,
h8o,Li4.8Si0.2Al0.8S4,2,Li9.6Si0.4Al1.6S8.0,2.29e-07,,,P21/m,11,6.843,7.833,6.235,90.0,89.846,90.0,thio-LISICON,10.1006/jssc.2002.9701,1,D2 - 18,not available,,,,,,,18.0,
pe2,Li17Sb13S28,1,Li17.0Sb13.0S28.0,1.05e-09,,,C2/m ,12,12.7298,11.5837,9.2251,90.0,119.55,90.0,,10.1002/chem.201502052,1,D2 - 24,done,429902-ICSD,,partial occupancy corrected,,,429902.0,24.0,
opo,Li0.6[Li0.2Sn0.8S2],6,Li4.8Sn4.8S12.0,0.00012,,,C2/m ,12,19.217,3.6996,6.529,90.0,109.056,90.0,layered,10.1039/c6ee00633g,1,D2 - 22,done,appendix,,,,,,22.0,
lkm,Li6Ge2O7,4,Li24.0Ge8.0O28.0,8.5e-07,,,P21/c,14,8.071,5.304,14.223,90.0,92.9,90.0,,10.4028/www.scientific.net/msf.76.107,1,D2 - 31,done,31050-ICSD,,,,,31050.0,31.0,
bv2,LiYO2,4,Li4.0Y4.0O8.0,1.8e-08,,,P21/c,14,6.12,6.185,6.21,90.0,118.8,90.0,oxides,10.1016/0167-2738(81)90021-7,1,D2 - 33,done,45511-ICSD,,check cif file matching,,,45511.0,33.0,
be9,LiGaBr4,4,Li4.0Ga4.0Br16.0,7e-06,,,P21/c,14,13.696,6.854,7.416,90.0,93.14,90.0,halides,10.1016/s0167-2738(00)00491-4,1,D2 - 25,done,61337-ICSD,,,,,61337.0,25.0,
n27,LiBO2,4,Li4.0B4.0O8.0,1e-08,,,P21/c,14,5.845,4.353,6.454,90.0,115.09,90.0,,10.1140/epjst/e2008-00753-4,1,D2 - 34,done,200891-ICSD,D2 -34_II ,"Value for nanocrystalline ceramic (16h) other values for micro, single crystal and amorphous",,,200891.0,34.0,
goi,LiClC3H7NO,4,Li4.0Cl4.0C12.0H28.0N4.0O4.0,0.00016,,,P21/c,14,5.839,6.39,15.961,90.0,98.826,90.0,,10.1021/acs.chemmater.5b00940,1,D2 - 35,done,CCDC 969064,appendix,,,,,35.0,
lrh,Li2.5V2(PO4)3,4,Li10.0V8.0P12.0O48.0,1.9e-07,,,P21/c,14,8.45678,8.62076,11.89577,90.0,90.2366,90.0,NASICON,10.1021/cm034802f,1,D2 - 37,done,240268-ICSD,,,,,240268.0,37.0,
1xt,LiSbO2,8,Li8.0Sb8.0O16.0,<1E-10,,,P21/c,14,4.855,17.857,5.5771,90.0,90.061,90.0,oxides,10.1021/ic201183e,1,D2 - 39,done,262075-ICSD,,,,,262075.0,39.0,
kbo,Li2Sr2Al(PO4)3,4,Li8.0Sr8.0Al4.0P12.0O48.0,<1E-10,,,P21/c,14,4.945,22.088,8.632,90.0,91.47,90.0,NASICON,10.1016/j.jssc.2016.08.006,1,D2 - 40,done,CCDC 1790590,,,,,,40.0,
5zv,Li4Zn(PO4)2,4,Li16.0Zn4.0P8.0O32.0,5.55e-18,,,P21/c,14,8.1199,10.24192,8.10549,90.0,104.8589,90.0,phosphates,10.1021/acs.chemmater.7b05139,1,D2 - 38,done,appendix,,,,,,38.0,
5bz,Li3BN2,4,Li12.0B4.0N8.0,8.7e-08,,,P21/c,14,5.1502,7.0824,6.7908,90.0,112.956,90.0,boron nitride,10.1016/0022-4596(87)90135-6,1,D2 - 93,done,41022-ICSD,D2 - 93_II; Li3BN2.cif,,,,41022.0,93.0,
883,LiAlH4,4,Li4.0Al4.0H16.0,8.7e-09,,,P21/c,14,4.8254,7.804,7.8968,90.0,112.268,90.0,hydrides,10.1063/1.3356981,1,D1 - 727,done,95202-ICSD,,,,,95202.0,,727.0
uu4,LiVO3,8,Li8.0V8.0O24.0,2.05e-09,,,C2/c,15,10.1597,8.4155,5.8843,90.0,110.505,90.0,oxides,10.1006/jssc.2000.9009,1,D2 - 48,done,51443-ICSD,,,,,51443.0,48.0,
tws,Li6Zr2O7,4,Li24.0Zr8.0O28.0,5.2e-10,,,C2/c,15,10.44,5.991,10.204,90.0,100.25,90.0,zirconates,10.3103/s1062873810050199,1,D2 - 41,done,73835-ICSD,,,,,73835.0,41.0,
l9v,Li3AlF6,12,Li36.0Al12.0F72.0,5e-07,,,C2/c,15,14.201,8.387,9.861,90.0,94.07,90.0,fluorides,10.1149/2.012206eel,1,D2 - 42,done,85171-ICSD,,Ball milled conducvitity; structure may be different ,,,85171.0,42.0,
t0h,Li2ZrO3,4,Li8.0Zr4.0O12.0,6.1e-10,,,C2/c,15,5.4163,9.0262,5.4156,90.0,112.615,90.0,oxides,10.1016/0167-2738(81)90021-7,1,D2 - 33,done,94894-ICSD,,check cif file matching,,,94894.0,33.0,
4kt,Li2CrCl4,4,Li8.0Cr4.0Cl16.0,<1E-10,,,C2/c,15,7.446,10.162,10.172,90.0,90.0,132.11,halides,10.1016/0022-4596(88)90301-5,1,D2 - 49,done,202627-ICSD,,,,,202627.0,49.0,
xas,Li2SnS3,8,Li16.0Sn8.0S24.0,1.5e-05,,,C2/c,15,6.3964,11.0864,12.4048,90.0,99.867,90.0,sulfides,10.1021/cm5037524,1,D2 - 43,done,251656-ICSD,,,,,251656.0,43.0,
kfp,Li2BaP2O7,8,Li16.0Ba8.0P16.0O56.0,1.59881e-17,,,C2/c,15,7.147,12.283,14.016,90.0,90.49,90.0,pyrophosphate,10.1007/s11581-014-1261-6,1,D2 - 45,done,280927-ICSD,,,,,280927.0,45.0,
qy4,Li3Na5(TiS4)2,4,Li12.0Na20.0Ti8.0S32.0,8.8e-06,,,C2/c,15,17.5783,9.6404,12.0796,90.0,133.4047,90.0,sulfides,10.1016/j.jssc.2008.01.023,1,D2 - 46,done,391258-ICSD,,,,,391258.0,46.0,
00x,LiGd(PO3)4,4,Li4.0Gd4.0P16.0O48.0,<1E-10,,,C2/c,15,16.386,7.059,9.677,90.0,126.12,90.0,phosphates,10.1016/j.jssc.2006.06.003,1,D2 - 47,done,416442-ICSD,,,,,416442.0,47.0,
9wf,Li3ErI6,4,Li12.0Er4.0I24.0,0.00065,,,C2/c,15,7.413,12.838,14.2,90.0,100.01,90.0,halides,10.1021/acsaem.0c00147,1,D2 - 50,done,,,"appendix: diffraction data available, D_0 calculation",,,,50.0,
dmq,Li3AlS3,8,Li24.0Al8.0S24.0,1.31e-08,,,C2/c,15,14.31901,11.98037,6.627,90.0,116.9231,90.0,sulfides,10.1021/acs.chemmater.9b03230,1,D1 - 913,done,appendix,,,,,101899.0,,770.0
uox,Li3.7Zn0.7Ga0.3(PO4)2,2,Li7.4Zn1.4Ga0.6P4.0O16.0,5.65e-12,,,P 21 21 21,19,4.9391,6.4803,10.1468,90.0,90.0,90.0,phosphates,10.1021/acs.chemmater.7b05139,1,D2 - 38,done,appendix,,,,,,38.0,
joc,Li3PS4,2,Li6.0P2.0S8.0,2.6e-07,,,Pmn21,31,7.70829,6.53521,6.1365,90.0,90.0,90.0,thio-LISICON,10.1021/ja3110895,1,D2 - 52,done,180318-ICSD,,,,,180318.0,52.0,
mq1,Li3SbS4,2,Li6.0Sb2.0S8.0,4.8e-09,,,Pmn21,31,7.9645,6.8404,6.3774,90.0,90.0,90.0,thio-LISICON,10.1016/j.ssi.2019.01.017,1,D2 - 51,done,,,diffraction data available,,,8407.0,51.0,
ssv,Li3P0.2V0.8O4,2,Li6.0P0.4V1.6O8.0,1.31e-13,,,Pmn21,31,6.282,5.4021,4.9289,90.0,90.0,90.0,LISICON,10.1021/acs.chemmater.8b01504,1,D1 - 541,not available,,,D_0 calculation,,,,,449.0
h6c,Li3VO4,2,Li6.0V2.0O8.0,9.2e-14,,,Pmn21,31,6.3278,5.4448,4.9467,90.0,90.0,90.0,LISICON,10.1021/acs.chemmater.8b01504,1,D1 - 541,done,,,,Yes,10.1016/S0022-4596(73)80012-X,19002.0,,446.0
bsa,LiGaO2,4,Li4.0Ga4.0O8.0,2.4e-14,,,Pna21,33,5.402,6.372,5.007,90.0,90.0,90.0,oxides,10.1007/bf00549810,1,D2 - 53,done,18152-ICSD,,check cif file matching,,,18152.0,53.0,
mde,LiB6O9F,4,Li4.0B24.0O36.0F4.0,<1E-10,,,Pna21,33,7.65545,8.53175,10.7894,90.0,90.0,90.0,fluorooxoborate,10.1002/zaac.200900056,1,D2 - 54,done,420286-ICSD,,,,,420286.0,54.0,
1e9,Li3SbS3,4,Li12.0Sb4.0S12.0,1e-09,,,Pna21,33,7.9671,6.7883,10.0912,90.0,90.0,90.0,sulfides,10.1002/zaac.201200277,1,D2 - 55_II,done,424834-ICSD,,,,,424834.0,55.0,
an2,Li6SiO4Cl2,4,Li24.0Si4.0O16.0Cl8.0,1e-10,,,Pna21,33,10.5204,6.0756,9.953,90.0,90.0,90.0,argyrodite,10.1021/acs.chemmater.1c00157,1,D1 - 915,done,appendix,,,,,,,772.0
tka,LiSi2N3,4,Li4.0Si8.0N12.0,6.17e-08,,,Cmc21,36,9.186,5.302,4.776,90.0,90.0,90.0,nitride,10.1016/0167-2738(87)90119-6,1,D2 - 56,done,34118-ICSD,,,,,34118.0,56.0,
cdk,Li2(PO2N),4,Li8.0P4.0O8.0N4.0,<1E-10,,,Cmc21,36,9.0692,5.3999,4.6856,90.0,90.0,90.0,LIPON,10.1016/j.ssi.2012.12.013,1,D2 - 57,done,188493-ICSD,,,,,188493.0,57.0,
fwz,Li2SiS3,4,Li8.0Si4.0S12.0,2e-06,,,Cmc21,36,6.735,11.664,5.926,90.0,90.0,90.0,thio-LISICON,10.1016/0025-5408(89)90053-6,1,D1 - 764; D2 - 15,done,,,appendix: diffraction data available,Yes,mp-1210789,,,635.0
hln,LiGa2GeS6,8,Li8.0Ga16.0Ge8.0S48.0,3.8e-08,,,Fdd2,43,11.943,22.59,6.805,90.0,90.0,90.0,sulfides,10.1016/j.ssi.2014.04.015,1,D2 - 58,not available,,,,,,,58.0,
cy2,La0.64Li0.08TiO3,2,La1.28Li0.16Ti2.0O6.0,0.000335,,,Pmmm,47,3.8753,3.8638,7.7901,90.0,90.0,90.0,perovskites,10.1016/s0167-2738(00)00761-x,1,D2 - 59,done,92228-ICSD,,,,,92228.0,59.0,
5tl,La0.62Li0.14TiO3,2,La1.24Li0.28Ti2.0O6.0,0.000442,,,Pmmm,47,3.8757,3.8655,7.7845,90.0,90.0,90.0,perovskites,10.1016/s0167-2738(00)00761-x,1,D2 - 59,done,92231-ICSD,,,,,92231.0,59.0,
u2y,La0.595Li0.215TiO3,2,La1.19Li0.43Ti2.0O6.0,0.000853,,,Pmmm,47,3.8671,3.8654,7.7727,90.0,90.0,90.0,perovskites,10.1016/s0167-2738(00)00761-x,1,D2 - 59,done,92234-ICSD,,,,,92234.0,59.0,
kxh,Pr0.56Li0.34TiO3.01,2,Pr1.12Li0.68Ti2.0O6.02,1e-06,,,Pmmm,47,3.8372,3.8372,7.701,90.0,90.0,90.0,perovskites,10.1016/0167-2738(94)90310-7,1,D2 - 62,not available,,,,,,,62.0,
3we,Nd0.55Li0.34TiO3,2,Nd1.1Li0.68Ti2.0O6.0,8e-08,,,Pmmm,47,3.8204,3.823,7.679,90.0,90.0,90.0,perovskites,10.1016/0167-2738(94)90310-7,1,D2 - 62,not available,,,,,,,62.0,506.0
5z0,Li5AlO4,8,Li40.0Al8.0O32.0,5e-10,,,Pbca,61,9.08,8.94,9.13,90.0,90.0,90.0,oxides,10.1016/0025-5408(76)90169-0,1,D2 - 64,done,42697-ICSD,,,Yes,10.1002/zaac.19713800303,42697.0,64.0,
472,Li14Nd5(Si11N19O5)O2F2,2,Li28.0Nd10.0Si22.0N38.0O14.0F4.0,1.7e-10,,,Pmmn,59,17.126,7.6155,10.123,90.0,90.0,90.0,nitridosilicates,10.1021/ja302255d,1,D2 - 65,done,appendix; 262923-ICSD,,,,,262923.0,65.0,
9zk,Li5GaO4,8,Li40.0Ga8.0O32.0,5e-09,,,Pbca,61,9.173,9.094,9.202,90.0,90.0,90.0,oxides,10.1016/0025-5408(76)90169-0,1,D2 - 64,done,9082-ICSD,,,,,9082.0,64.0,
dnt,Li2CrTi(PO4)3,8,Li16.0Cr8.0Ti8.0P24.0O96.0,4.41e-07,,,Pbca,61,8.461,8.688,23.83,90.0,90.0,90.0,NASICON,10.1016/s0167-2738(96)00565-6,1,D1 - 407,not available,,,,,,,,337.0
g5g,Li2CrZr(PO4)3,8,Li16.0Cr8.0Zr8.0P24.0O96.0,5.91e-07,,,Pbca,61,8.596,8.787,24.21,90.0,90.0,90.0,NASICON,10.1016/s0167-2738(96)00565-6,1,D1 - 407,not available,,,,,,,,336.0
hpu,Li2CrHf(PO4)3,8,Li16.0Cr8.0Hf8.0P24.0O96.0,4.2e-08,,,Pbca,61,8.598,8.816,24.21,90.0,90.0,90.0,NASICON,10.1016/s0167-2738(96)00565-6,1,D1 - 407,not available,,,,,,,,407.0
c6h,Li2FeTi(PO4)3,8,Li16.0Fe8.0Ti8.0P24.0O96.0,3.34e-07,,,Pbca,61,8.452,8.672,23.62,90.0,90.0,90.0,NASICON,10.1016/s0167-2738(96)00565-6,1,D1 - 407,not available,,,,,,,,338.0
vzu,Li2FeZr(PO4)3,8,Li16.0Fe8.0Zr8.0P24.0O96.0,1.44e-07,,,Pbca,61,8.47,8.72,23.8,90.0,90.0,90.0,NASICON,10.1016/s0167-2738(96)00565-6,1,D1 - 407,not available,,,,,,,,339.0
a3e,Li2InHf(PO4)3,8,Li16.0In8.0Hf8.0P24.0O96.0,2.74e-08,,,Pbca,61,8.757,8.954,24.28,90.0,90.0,90.0,NASICON,10.1016/s0167-2738(96)00565-6,1,D1 - 407,not available,,,,,,,,341.0
ubi,Li2InTi(PO4)3,8,Li16.0In8.0Ti8.0P24.0O96.0,8.3e-06,,,Pbca,61,8.577,8.826,24.05,90.0,90.0,90.0,NASICON,10.1016/s0167-2738(96)00565-6,1,D1 - 407,not available,,,,,,,,335.0
9z8,Li2InZr(PO4)3,8,Li16.0In8.0Zr8.0P24.0O96.0,8.22e-08,,,Pbca,61,8.761,8.979,24.2,90.0,90.0,90.0,NASICON,10.1016/s0167-2738(96)00565-6,1,D1 - 407,not available,,,,,,,,340.0
nhq,Li3PS4,4,Li12.0P4.0S16.0,8.93e-07,,,Pnma,62,13.066,8.015,6.101,90.0,90.0,90.0,thio-LISICON,10.1021/ja3110895,1,D2 - 52,done,180319-ICSD,,lattice parameters not matching cif,,,180319.0,52.0,
w7d,Li3PO4,4,Li12.0P4.0O16.0,4.2e-18,,,Pnma,62,6.1113,10.4612,4.9208,90.0,90.0,90.0,LISICON,10.1006/jssc.1995.1140,1,D2 - 70,done,79427-ICSD,,,Yes,,79427.0,70.0,
fj5,Li6.5O8P1.5Si0.5,2,Li13.0O16.0P3.0Si1.0,4.49e-07,,,Pnma,62,10.52587,6.11525,4.97031,90.0,90.0,90.0,LISICON,10.1021/jacs.5b04444,1,D2 - 16,done,238600-ICSD; appendix,,partial occupancy corrected,,,238600.0,16.0,
gxz,Li4Zn(PO4)2,2,Li8.0Zn2.0P4.0O16.0,<1E-10,,,Pnma,62,10.2974,6.5021,5.0011,90.0,90.0,90.0,phosphates,10.1021/acs.chemmater.7b05139,1,D2 - 38,done,,,"should be deleted, high T structure, refer the alpha phase",,,255465.0,38.0,
tbu,Li3.5Zn0.5Ga0.5(PO4)2,2,Li7.0Zn1.0Ga1.0P4.0O16.0,<1E-10,,,Pnma,62,10.08925,6.5108,4.935878,90.0,90.0,90.0,phosphates,10.1021/acs.chemmater.7b05139,1,D2 - 38,done,appendix,,,,,,38.0,
uxo,Li2.88PO3.73N0.14,4,Li11.52P4.0O14.92N0.56,1.4e-13,,,Pnma,62,6.1153,10.469,4.9195,90.0,90.0,90.0,LISICON,10.1006/jssc.1995.1140,0,D2 - 70,done,,,refer 79426-ICSD; po information is missing,,,79426.0,70.0,615.0
e6b,Li4GeS4,4,Li16.0Ge4.0S16.0,2e-07,,,Pnma,62,14.07,7.75,6.15,90.0,90.0,90.0,thio-LISICON,10.1016/s0167-2738(00)00277-0,1,D2 - 71,done,92200-ICSD,,partial occupancy corrected,,,92200.0,71.0,
pbz,Li3.75Ge0.75V0.25O4,4,Li15.0Ge3.0V1.0O16.0,5.66e-06,,,Pnma,62,10.896,6.2516,5.1571,90.0,90.0,90.0,LISICON,10.1023/a:1026135806929,1,D2 - 73,done,150918-ICSD,,partial occupancy corrected,,,150918.0,73.0,
7ek,Li3.70Ge0.85W0.15O4,4,Li14.8Ge3.4W0.6O16.0,3.8e-05,,,Pnma,62,10.938,6.274,5.1609,90.0,90.0,90.0,LISICON,10.1023/a:1026135806929,1,D2 - 73,done,150920-ICSD,,partial occupancy corrected,,,150920.0,73.0,
86k,Li0.2Ca0.4TaO3,4,Li0.8Ca1.6Ta4.0O12.0,3.53e-09,,,Pnma,62,5.477,7.75,5.479,90.0,90.0,90.0,perovskites,10.1016/j.solidstatesciences.2004.05.006,1,D2 - 74,not available,,,"structure avialble for x=0.15, but no conductivity",,,,74.0,
kmv,Li4SnS4,4,Li16.0Sn4.0S16.0,7e-05,,,Pnma,62,13.812,7.9624,6.367,90.0,90.0,90.0,Chalcogenidotetrelates,10.1021/cm3011315,1,D2 - 80,done,appendix,,,,,,80.0,658.0
n7a,Li2.5Y0.5Zr0.5Cl6,4,Li10.0Y2.0Zr2.0Cl24.0,0.0014,,,Pnma,62,12.0389,11.1664,6.4069,90.0,90.0,90.0,halides,10.1021/acsenergylett.9b02599,1,D2 - 83,not available,,,Li2.5Er0.5Zr0.5Cl6 is available,,,,83.0,
i6k,Sm0.52Li0.38TiO2.97,4,Sm2.08Li1.52Ti4.0O11.88,2e-07,,,Pnma,62,5.34,7.619,5.441,90.0,90.0,90.0,perovskites,10.1016/0167-2738(94)90310-7,1,D2 - 62,not available,,,IC number should be read from the graph,,,,62.0,
x94,Li4SiS4,4,Li16.0Si4.0S16.0,4.93e-08,,,Pnma,62,13.735,7.769,6.147,90.0,90.0,90.0,thio-LISICON,10.1016/0025-5408(89)90053-6,1,D1 - 764; D2 - 15,not available,,,appendix: diffraction data available,,,,,634.0
e6e,Li3.2Ge0.2P0.8O4,4,Li12.8Ge0.8P3.2O16.0,1.14e-06,,,Pnma,62,10.5562,6.1319,4.9769,90.0,90.0,90.0,LISICON,10.1021/acs.chemmater.8b01504,1,D1- 541,not available,,,,,,,,447.0
ylh,Li3.2Ge0.2V0.8O4,4,Li12.8Ge0.8V3.2O16.0,1.9e-05,,,Pnma,62,10.8685,6.2984,5.1017,90.0,90.0,90.0,LISICON,10.1021/acs.chemmater.8b01504,1,D1- 541,not available,,,,,,,,452.0
eij,Li3.4Ge0.4P0.6O4,4,Li13.6Ge1.6P2.4O16.0,4.5e-06,,,Pnma,62,10.6305,6.1639,5.0266,90.0,90.0,90.0,LISICON,10.1021/acs.chemmater.8b01504,1,D1- 541,not available,,,,,,,,451.0
ldd,Li3.4Ge0.4V0.6O4,4,Li13.6Ge1.6V2.4O16.0,8.89e-07,,,Pnma,62,10.8697,6.2784,5.1181,90.0,90.0,90.0,LISICON,10.1021/acs.chemmater.8b01504,1,D1- 541,not available,,,,,,,,455.0
efb,Li3.6Ge0.6P0.4O4,4,Li14.4Ge2.4P1.6O16.0,1.1e-05,,,Pnma,62,10.7284,6.1866,5.0882,90.0,90.0,90.0,LISICON,10.1021/acs.chemmater.8b01504,1,D1- 541,not available,,,,,,,,450.0
lcm,Li3.6Ge0.6V0.4O4,4,Li14.4Ge2.4V1.6O16.0,3.19e-05,,,Pnma,62,10.8786,6.26,5.1371,90.0,90.0,90.0,LISICON,10.1021/acs.chemmater.8b01504,1,D1- 541,not available,,,,,,,,453.0
mgs,Li3.8Ge0.8P0.2O4,4,Li15.2Ge3.2P0.8O16.0,1.03e-06,,,Pnma,62,10.8096,6.1767,5.1421,90.0,90.0,90.0,LISICON,10.1021/acs.chemmater.8b01504,1,D1- 541,not available,,,,,,,,444.0
31s,Li3.8Ge0.8V0.2O4,4,Li15.2Ge3.2V0.8O16.0,2.71e-06,,,Pnma,62,10.8891,6.2315,5.1518,90.0,90.0,90.0,LISICON,10.1021/acs.chemmater.8b01504,1,D1- 541,not available,,,,,,,,454.0
dku,Li3P0.4V0.6O4,4,Li12.0P1.6V2.4O16.0,3.55e-13,,,Pnma,62,10.7651,6.2647,4.9262,90.0,90.0,90.0,LISICON,10.1021/acs.chemmater.8b01504,1,D1- 541,not available,,,,,,,,448.0
ndx,Li3P0.6V0.4O4,4,Li12.0P2.4V1.6O16.0,3.2e-13,,,Pnma,62,10.6467,6.2052,4.9763,90.0,90.0,90.0,LISICON,10.1021/acs.chemmater.8b01504,1,D1- 541,not available,,,,,,,,456.0
m0j,Li3P0.8V0.2O4,4,Li12.0P3.2V0.8O16.0,2.05e-13,,,Pnma,62,10.554,6.1486,4.9492,90.0,90.0,90.0,LISICON,10.1021/acs.chemmater.8b01504,1,D1- 541,not available,,,,,,,,458.0
9lo,Li3PO4,4,Li12.0P4.0O16.0,1.75e-13,,,Pnma,62,10.4772,6.1179,4.9297,90.0,90.0,90.0,LISICON,10.1021/acs.chemmater.8b01504,1,D1- 541,done,refer 79427-ICSD,,,Yes,ICSD-77095,77095.0,,445.0
dth,Li4GeO4,4,Li16.0Ge4.0O16.0,1.3e-12,,,Cmcm,63,7.7661,7.3645,6.0555,90.0,90.0,90.0,LISICON,10.1021/acs.chemmater.8b01504,1,D1- 541,done,,,,Yes,10.1002/zaac.19875551213,65177.0,,457.0
45e,Li2MgBr4,4,Li8.0Mg4.0Br16.0,7.8e-10,,,Cmmm ,65,7.771,11.04,7.735,90.0,90.0,90.0,halides,10.1002/chin.198639014|10.1149/1.2108704,1,D2 - 89,not available,refer 73276-ICSD,,,,,73276.0,89.0,
x2i,LiBiO2,8,Li8.0Bi8.0O16.0,3.8e-08,,,Ibam,72,18.00548,5.18159,4.97144,90.0,90.0,90.0,oxides,10.1016/j.ssi.2015.10.016,1,D2 - 30,done,46022-ICSD,,,Yes,ICSD-46022,46022.0,30.0,
xz4,(Li0.5Ce0.5)(MoO4),4,Li2.0Ce2.0Mo4.0O16.0,1.3e-08,,,I41/a ,88,5.2943,5.2943,11.6254,90.0,90.0,90.0,molybdates,10.1007/s12039-011-0068-5,1,D2 - 91,done,186450-ICSD,,partial occupancy corrected,,,186450.0,91.0,
hja,(Li0.5Ce0.25Pr0.25)(MoO4),4,Li2.0Ce1.0Pr1.0Mo4.0O16.0,1e-09,,,I41/a ,88,5.284,5.284,11.5763,90.0,90.0,90.0,molybdates,10.1007/s12039-011-0068-5,1,D2 - 91,done,186451-ICSD,,partial occupancy corrected,,,186451.0,91.0,
3nb,(Li0.5Ce0.25Sm0.25)(MoO4),4,Li2.0Ce1.0Sm1.0Mo4.0O16.0,1.8e-10,,,I41/a ,88,5.2546,5.2546,11.5052,90.0,90.0,90.0,molybdates,10.1007/s12039-011-0068-5,1,D2 - 91,done,186452-ICSD,,partial occupancy corrected,,,186452.0,91.0,
qa9,Li3BN2,2,Li6.0B2.0N4.0,1.6e-10,,,P42/mnm,136,4.6435,4.6435,5.2592,90.0,90.0,90.0,boron nitride,10.1016/0022-4596(87)90135-6,1,D2 - 93,done,655673-ICSD,Li3BN2_II.cif,changed space group to reflect actual higher symmetry,,,655673.0,93.0,
ihb,Li0.33La0.56Ti0.99Al0.01O2.99F0.01,2,Li0.66La1.12Ti1.98Al0.02O5.98F0.02,0.00098,,,P4mm ,99,3.8701,3.8701,7.756,90.0,90.0,90.0,perovskites,10.1007/s11581-006-0011-9,1,D1 - 83,not available,,,,,,,,83.0